ZCORN                                   -- Generated : Petrel
  100*23459.55 200*23350.36 200*23241.17 200*23131.98 200*23022.79 200*22913.6 200*22804.41 200*22695.22 200*22586.02 200*22476.83
  200*22367.64 200*22258.45 200*22149.26 200*22040.07 200*21930.88 200*21821.69 200*21712.5 200*21603.31 200*21494.11 200*21384.92
  200*21275.73 200*21166.54 200*21057.35 200*20948.16 200*20838.97 200*20729.78 200*20620.59 200*20511.39 200*20402.2 200*20293.01
  200*20183.82 200*20074.63 200*19965.44 200*19856.25 200*19747.06 200*19637.87 200*19528.67 200*19419.48 200*19310.29 200*19201.1
  200*19091.91 200*18982.72 200*18873.53 200*18764.34 200*18655.15 200*18545.96 200*18436.76 200*18327.57 200*18218.38 200*18109.19
  100*18000 100*23469.55 200*23360.36 200*23251.17 200*23141.98 200*23032.79 200*22923.6 200*22814.41 200*22705.22 200*22596.02
  200*22486.83 200*22377.64 200*22268.45 200*22159.26 200*22050.07 200*21940.88 200*21831.69 200*21722.5 200*21613.31 200*21504.11
  200*21394.92 200*21285.73 200*21176.54 200*21067.35 200*20958.16 200*20848.97 200*20739.78 200*20630.59 200*20521.39 200*20412.2
  200*20303.01 200*20193.82 200*20084.63 200*19975.44 200*19866.25 200*19757.06 200*19647.87 200*19538.67 200*19429.48 200*19320.29
  200*19211.1 200*19101.91 200*18992.72 200*18883.53 200*18774.34 200*18665.15 200*18555.96 200*18446.76 200*18337.57 200*18228.38
  200*18119.19 100*18010 100*23469.55 200*23360.36 200*23251.17 200*23141.98 200*23032.79 200*22923.6 200*22814.41 200*22705.22
  200*22596.02 200*22486.83 200*22377.64 200*22268.45 200*22159.26 200*22050.07 200*21940.88 200*21831.69 200*21722.5 200*21613.31
  200*21504.11 200*21394.92 200*21285.73 200*21176.54 200*21067.35 200*20958.16 200*20848.97 200*20739.78 200*20630.59 200*20521.39
  200*20412.2 200*20303.01 200*20193.82 200*20084.63 200*19975.44 200*19866.25 200*19757.06 200*19647.87 200*19538.67 200*19429.48
  200*19320.29 200*19211.1 200*19101.91 200*18992.72 200*18883.53 200*18774.34 200*18665.15 200*18555.96 200*18446.76 200*18337.57
  200*18228.38 200*18119.19 100*18010 100*23479.55 200*23370.36 200*23261.17 200*23151.98 200*23042.79 200*22933.6 200*22824.41
  200*22715.22 200*22606.02 200*22496.83 200*22387.64 200*22278.45 200*22169.26 200*22060.07 200*21950.88 200*21841.69 200*21732.5
  200*21623.31 200*21514.11 200*21404.92 200*21295.73 200*21186.54 200*21077.35 200*20968.16 200*20858.97 200*20749.78 200*20640.59
  200*20531.39 200*20422.2 200*20313.01 200*20203.82 200*20094.63 200*19985.44 200*19876.25 200*19767.06 200*19657.87 200*19548.67
  200*19439.48 200*19330.29 200*19221.1 200*19111.91 200*19002.72 200*18893.53 200*18784.34 200*18675.15 200*18565.96 200*18456.76
  200*18347.57 200*18238.38 200*18129.19 100*18020 100*23479.55 200*23370.36 200*23261.17 200*23151.98 200*23042.79 200*22933.6
  200*22824.41 200*22715.22 200*22606.02 200*22496.83 200*22387.64 200*22278.45 200*22169.26 200*22060.07 200*21950.88 200*21841.69
  200*21732.5 200*21623.31 200*21514.11 200*21404.92 200*21295.73 200*21186.54 200*21077.35 200*20968.16 200*20858.97 200*20749.78
  200*20640.59 200*20531.39 200*20422.2 200*20313.01 200*20203.82 200*20094.63 200*19985.44 200*19876.25 200*19767.06 200*19657.87
  200*19548.67 200*19439.48 200*19330.29 200*19221.1 200*19111.91 200*19002.72 200*18893.53 200*18784.34 200*18675.15 200*18565.96
  200*18456.76 200*18347.57 200*18238.38 200*18129.19 100*18020 100*23489.55 200*23380.36 200*23271.17 200*23161.98 200*23052.79
  200*22943.6 200*22834.41 200*22725.22 200*22616.02 200*22506.83 200*22397.64 200*22288.45 200*22179.26 200*22070.07 200*21960.88
  200*21851.69 200*21742.5 200*21633.31 200*21524.11 200*21414.92 200*21305.73 200*21196.54 200*21087.35 200*20978.16 200*20868.97
  200*20759.78 200*20650.59 200*20541.39 200*20432.2 200*20323.01 200*20213.82 200*20104.63 200*19995.44 200*19886.25 200*19777.06
  200*19667.87 200*19558.67 200*19449.48 200*19340.29 200*19231.1 200*19121.91 200*19012.72 200*18903.53 200*18794.34 200*18685.15
  200*18575.96 200*18466.76 200*18357.57 200*18248.38 200*18139.19 100*18030 100*23489.55 200*23380.36 200*23271.17 200*23161.98
  200*23052.79 200*22943.6 200*22834.41 200*22725.22 200*22616.02 200*22506.83 200*22397.64 200*22288.45 200*22179.26 200*22070.07
  200*21960.88 200*21851.69 200*21742.5 200*21633.31 200*21524.11 200*21414.92 200*21305.73 200*21196.54 200*21087.35 200*20978.16
  200*20868.97 200*20759.78 200*20650.59 200*20541.39 200*20432.2 200*20323.01 200*20213.82 200*20104.63 200*19995.44 200*19886.25
  200*19777.06 200*19667.87 200*19558.67 200*19449.48 200*19340.29 200*19231.1 200*19121.91 200*19012.72 200*18903.53 200*18794.34
  200*18685.15 200*18575.96 200*18466.76 200*18357.57 200*18248.38 200*18139.19 100*18030 100*23499.55 200*23390.36 200*23281.17
  200*23171.98 200*23062.79 200*22953.6 200*22844.41 200*22735.22 200*22626.02 200*22516.83 200*22407.64 200*22298.45 200*22189.26
  200*22080.07 200*21970.88 200*21861.69 200*21752.5 200*21643.31 200*21534.11 200*21424.92 200*21315.73 200*21206.54 200*21097.35
  200*20988.16 200*20878.97 200*20769.78 200*20660.59 200*20551.39 200*20442.2 200*20333.01 200*20223.82 200*20114.63 200*20005.44
  200*19896.25 200*19787.06 200*19677.87 200*19568.67 200*19459.48 200*19350.29 200*19241.1 200*19131.91 200*19022.72 200*18913.53
  200*18804.34 200*18695.15 200*18585.96 200*18476.76 200*18367.57 200*18258.38 200*18149.19 100*18040 100*23499.55 200*23390.36
  200*23281.17 200*23171.98 200*23062.79 200*22953.6 200*22844.41 200*22735.22 200*22626.02 200*22516.83 200*22407.64 200*22298.45
  200*22189.26 200*22080.07 200*21970.88 200*21861.69 200*21752.5 200*21643.31 200*21534.11 200*21424.92 200*21315.73 200*21206.54
  200*21097.35 200*20988.16 200*20878.97 200*20769.78 200*20660.59 200*20551.39 200*20442.2 200*20333.01 200*20223.82 200*20114.63
  200*20005.44 200*19896.25 200*19787.06 200*19677.87 200*19568.67 200*19459.48 200*19350.29 200*19241.1 200*19131.91 200*19022.72
  200*18913.53 200*18804.34 200*18695.15 200*18585.96 200*18476.76 200*18367.57 200*18258.38 200*18149.19 100*18040 100*23509.55
  200*23400.36 200*23291.17 200*23181.98 200*23072.79 200*22963.6 200*22854.41 200*22745.22 200*22636.02 200*22526.83 200*22417.64
  200*22308.45 200*22199.26 200*22090.07 200*21980.88 200*21871.69 200*21762.5 200*21653.31 200*21544.11 200*21434.92 200*21325.73
  200*21216.54 200*21107.35 200*20998.16 200*20888.97 200*20779.78 200*20670.59 200*20561.39 200*20452.2 200*20343.01 200*20233.82
  200*20124.63 200*20015.44 200*19906.25 200*19797.06 200*19687.87 200*19578.67 200*19469.48 200*19360.29 200*19251.1 200*19141.91
  200*19032.72 200*18923.53 200*18814.34 200*18705.15 200*18595.96 200*18486.76 200*18377.57 200*18268.38 200*18159.19 100*18050
  100*23509.55 200*23400.36 200*23291.17 200*23181.98 200*23072.79 200*22963.6 200*22854.41 200*22745.22 200*22636.02 200*22526.83
  200*22417.64 200*22308.45 200*22199.26 200*22090.07 200*21980.88 200*21871.69 200*21762.5 200*21653.31 200*21544.11 200*21434.92
  200*21325.73 200*21216.54 200*21107.35 200*20998.16 200*20888.97 200*20779.78 200*20670.59 200*20561.39 200*20452.2 200*20343.01
  200*20233.82 200*20124.63 200*20015.44 200*19906.25 200*19797.06 200*19687.87 200*19578.67 200*19469.48 200*19360.29 200*19251.1
  200*19141.91 200*19032.72 200*18923.53 200*18814.34 200*18705.15 200*18595.96 200*18486.76 200*18377.57 200*18268.38 200*18159.19
  100*18050 100*23519.55 200*23410.36 200*23301.17 200*23191.98 200*23082.79 200*22973.6 200*22864.41 200*22755.22 200*22646.02
  200*22536.83 200*22427.64 200*22318.45 200*22209.26 200*22100.07 200*21990.88 200*21881.69 200*21772.5 200*21663.31 200*21554.11
  200*21444.92 200*21335.73 200*21226.54 200*21117.35 200*21008.16 200*20898.97 200*20789.78 200*20680.59 200*20571.39 200*20462.2
  200*20353.01 200*20243.82 200*20134.63 200*20025.44 200*19916.25 200*19807.06 200*19697.87 200*19588.67 200*19479.48 200*19370.29
  200*19261.1 200*19151.91 200*19042.72 200*18933.53 200*18824.34 200*18715.15 200*18605.96 200*18496.76 200*18387.57 200*18278.38
  200*18169.19 100*18060 100*23519.55 200*23410.36 200*23301.17 200*23191.98 200*23082.79 200*22973.6 200*22864.41 200*22755.22
  200*22646.02 200*22536.83 200*22427.64 200*22318.45 200*22209.26 200*22100.07 200*21990.88 200*21881.69 200*21772.5 200*21663.31
  200*21554.11 200*21444.92 200*21335.73 200*21226.54 200*21117.35 200*21008.16 200*20898.97 200*20789.78 200*20680.59 200*20571.39
  200*20462.2 200*20353.01 200*20243.82 200*20134.63 200*20025.44 200*19916.25 200*19807.06 200*19697.87 200*19588.67 200*19479.48
  200*19370.29 200*19261.1 200*19151.91 200*19042.72 200*18933.53 200*18824.34 200*18715.15 200*18605.96 200*18496.76 200*18387.57
  200*18278.38 200*18169.19 100*18060 100*23529.55 200*23420.36 200*23311.17 200*23201.98 200*23092.79 200*22983.6 200*22874.41
  200*22765.22 200*22656.02 200*22546.83 200*22437.64 200*22328.45 200*22219.26 200*22110.07 200*22000.88 200*21891.69 200*21782.5
  200*21673.31 200*21564.11 200*21454.92 200*21345.73 200*21236.54 200*21127.35 200*21018.16 200*20908.97 200*20799.78 200*20690.59
  200*20581.39 200*20472.2 200*20363.01 200*20253.82 200*20144.63 200*20035.44 200*19926.25 200*19817.06 200*19707.87 200*19598.67
  200*19489.48 200*19380.29 200*19271.1 200*19161.91 200*19052.72 200*18943.53 200*18834.34 200*18725.15 200*18615.96 200*18506.76
  200*18397.57 200*18288.38 200*18179.19 100*18070 100*23529.55 200*23420.36 200*23311.17 200*23201.98 200*23092.79 200*22983.6
  200*22874.41 200*22765.22 200*22656.02 200*22546.83 200*22437.64 200*22328.45 200*22219.26 200*22110.07 200*22000.88 200*21891.69
  200*21782.5 200*21673.31 200*21564.11 200*21454.92 200*21345.73 200*21236.54 200*21127.35 200*21018.16 200*20908.97 200*20799.78
  200*20690.59 200*20581.39 200*20472.2 200*20363.01 200*20253.82 200*20144.63 200*20035.44 200*19926.25 200*19817.06 200*19707.87
  200*19598.67 200*19489.48 200*19380.29 200*19271.1 200*19161.91 200*19052.72 200*18943.53 200*18834.34 200*18725.15 200*18615.96
  200*18506.76 200*18397.57 200*18288.38 200*18179.19 100*18070 100*23539.55 200*23430.36 200*23321.17 200*23211.98 200*23102.79
  200*22993.6 200*22884.41 200*22775.22 200*22666.02 200*22556.83 200*22447.64 200*22338.45 200*22229.26 200*22120.07 200*22010.88
  200*21901.69 200*21792.5 200*21683.31 200*21574.11 200*21464.92 200*21355.73 200*21246.54 200*21137.35 200*21028.16 200*20918.97
  200*20809.78 200*20700.59 200*20591.39 200*20482.2 200*20373.01 200*20263.82 200*20154.63 200*20045.44 200*19936.25 200*19827.06
  200*19717.87 200*19608.67 200*19499.48 200*19390.29 200*19281.1 200*19171.91 200*19062.72 200*18953.53 200*18844.34 200*18735.15
  200*18625.96 200*18516.76 200*18407.57 200*18298.38 200*18189.19 100*18080 100*23539.55 200*23430.36 200*23321.17 200*23211.98
  200*23102.79 200*22993.6 200*22884.41 200*22775.22 200*22666.02 200*22556.83 200*22447.64 200*22338.45 200*22229.26 200*22120.07
  200*22010.88 200*21901.69 200*21792.5 200*21683.31 200*21574.11 200*21464.92 200*21355.73 200*21246.54 200*21137.35 200*21028.16
  200*20918.97 200*20809.78 200*20700.59 200*20591.39 200*20482.2 200*20373.01 200*20263.82 200*20154.63 200*20045.44 200*19936.25
  200*19827.06 200*19717.87 200*19608.67 200*19499.48 200*19390.29 200*19281.1 200*19171.91 200*19062.72 200*18953.53 200*18844.34
  200*18735.15 200*18625.96 200*18516.76 200*18407.57 200*18298.38 200*18189.19 100*18080 100*23549.55 200*23440.36 200*23331.17
  200*23221.98 200*23112.79 200*23003.6 200*22894.41 200*22785.22 200*22676.02 200*22566.83 200*22457.64 200*22348.45 200*22239.26
  200*22130.07 200*22020.88 200*21911.69 200*21802.5 200*21693.31 200*21584.11 200*21474.92 200*21365.73 200*21256.54 200*21147.35
  200*21038.16 200*20928.97 200*20819.78 200*20710.59 200*20601.39 200*20492.2 200*20383.01 200*20273.82 200*20164.63 200*20055.44
  200*19946.25 200*19837.06 200*19727.87 200*19618.67 200*19509.48 200*19400.29 200*19291.1 200*19181.91 200*19072.72 200*18963.53
  200*18854.34 200*18745.15 200*18635.96 200*18526.76 200*18417.57 200*18308.38 200*18199.19 100*18090 100*23549.55 200*23440.36
  200*23331.17 200*23221.98 200*23112.79 200*23003.6 200*22894.41 200*22785.22 200*22676.02 200*22566.83 200*22457.64 200*22348.45
  200*22239.26 200*22130.07 200*22020.88 200*21911.69 200*21802.5 200*21693.31 200*21584.11 200*21474.92 200*21365.73 200*21256.54
  200*21147.35 200*21038.16 200*20928.97 200*20819.78 200*20710.59 200*20601.39 200*20492.2 200*20383.01 200*20273.82 200*20164.63
  200*20055.44 200*19946.25 200*19837.06 200*19727.87 200*19618.67 200*19509.48 200*19400.29 200*19291.1 200*19181.91 200*19072.72
  200*18963.53 200*18854.34 200*18745.15 200*18635.96 200*18526.76 200*18417.57 200*18308.38 200*18199.19 100*18090 100*23559.55
  200*23450.36 200*23341.17 200*23231.98 200*23122.79 200*23013.6 200*22904.41 200*22795.22 200*22686.02 200*22576.83 200*22467.64
  200*22358.45 200*22249.26 200*22140.07 200*22030.88 200*21921.69 200*21812.5 200*21703.31 200*21594.11 200*21484.92 200*21375.73
  200*21266.54 200*21157.35 200*21048.16 200*20938.97 200*20829.78 200*20720.59 200*20611.39 200*20502.2 200*20393.01 200*20283.82
  200*20174.63 200*20065.44 200*19956.25 200*19847.06 200*19737.87 200*19628.67 200*19519.48 200*19410.29 200*19301.1 200*19191.91
  200*19082.72 200*18973.53 200*18864.34 200*18755.15 200*18645.96 200*18536.76 200*18427.57 200*18318.38 200*18209.19 100*18100
  100*23559.55 200*23450.36 200*23341.17 200*23231.98 200*23122.79 200*23013.6 200*22904.41 200*22795.22 200*22686.02 200*22576.83
  200*22467.64 200*22358.45 200*22249.26 200*22140.07 200*22030.88 200*21921.69 200*21812.5 200*21703.31 200*21594.11 200*21484.92
  200*21375.73 200*21266.54 200*21157.35 200*21048.16 200*20938.97 200*20829.78 200*20720.59 200*20611.39 200*20502.2 200*20393.01
  200*20283.82 200*20174.63 200*20065.44 200*19956.25 200*19847.06 200*19737.87 200*19628.67 200*19519.48 200*19410.29 200*19301.1
  200*19191.91 200*19082.72 200*18973.53 200*18864.34 200*18755.15 200*18645.96 200*18536.76 200*18427.57 200*18318.38 200*18209.19
  100*18100 100*23569.55 200*23460.36 200*23351.17 200*23241.98 200*23132.79 200*23023.6 200*22914.41 200*22805.22 200*22696.02
  200*22586.83 200*22477.64 200*22368.45 200*22259.26 200*22150.07 200*22040.88 200*21931.69 200*21822.5 200*21713.31 200*21604.11
  200*21494.92 200*21385.73 200*21276.54 200*21167.35 200*21058.16 200*20948.97 200*20839.78 200*20730.59 200*20621.39 200*20512.2
  200*20403.01 200*20293.82 200*20184.63 200*20075.44 200*19966.25 200*19857.06 200*19747.87 200*19638.67 200*19529.48 200*19420.29
  200*19311.1 200*19201.91 200*19092.72 200*18983.53 200*18874.34 200*18765.15 200*18655.96 200*18546.76 200*18437.57 200*18328.38
  200*18219.19 100*18110 100*23569.55 200*23460.36 200*23351.17 200*23241.98 200*23132.79 200*23023.6 200*22914.41 200*22805.22
  200*22696.02 200*22586.83 200*22477.64 200*22368.45 200*22259.26 200*22150.07 200*22040.88 200*21931.69 200*21822.5 200*21713.31
  200*21604.11 200*21494.92 200*21385.73 200*21276.54 200*21167.35 200*21058.16 200*20948.97 200*20839.78 200*20730.59 200*20621.39
  200*20512.2 200*20403.01 200*20293.82 200*20184.63 200*20075.44 200*19966.25 200*19857.06 200*19747.87 200*19638.67 200*19529.48
  200*19420.29 200*19311.1 200*19201.91 200*19092.72 200*18983.53 200*18874.34 200*18765.15 200*18655.96 200*18546.76 200*18437.57
  200*18328.38 200*18219.19 100*18110 100*23579.55 200*23470.36 200*23361.17 200*23251.98 200*23142.79 200*23033.6 200*22924.41
  200*22815.22 200*22706.02 200*22596.83 200*22487.64 200*22378.45 200*22269.26 200*22160.07 200*22050.88 200*21941.69 200*21832.5
  200*21723.31 200*21614.11 200*21504.92 200*21395.73 200*21286.54 200*21177.35 200*21068.16 200*20958.97 200*20849.78 200*20740.59
  200*20631.39 200*20522.2 200*20413.01 200*20303.82 200*20194.63 200*20085.44 200*19976.25 200*19867.06 200*19757.87 200*19648.67
  200*19539.48 200*19430.29 200*19321.1 200*19211.91 200*19102.72 200*18993.53 200*18884.34 200*18775.15 200*18665.96 200*18556.76
  200*18447.57 200*18338.38 200*18229.19 100*18120 100*23579.55 200*23470.36 200*23361.17 200*23251.98 200*23142.79 200*23033.6
  200*22924.41 200*22815.22 200*22706.02 200*22596.83 200*22487.64 200*22378.45 200*22269.26 200*22160.07 200*22050.88 200*21941.69
  200*21832.5 200*21723.31 200*21614.11 200*21504.92 200*21395.73 200*21286.54 200*21177.35 200*21068.16 200*20958.97 200*20849.78
  200*20740.59 200*20631.39 200*20522.2 200*20413.01 200*20303.82 200*20194.63 200*20085.44 200*19976.25 200*19867.06 200*19757.87
  200*19648.67 200*19539.48 200*19430.29 200*19321.1 200*19211.91 200*19102.72 200*18993.53 200*18884.34 200*18775.15 200*18665.96
  200*18556.76 200*18447.57 200*18338.38 200*18229.19 100*18120 100*23589.55 200*23480.36 200*23371.17 200*23261.98 200*23152.79
  200*23043.6 200*22934.41 200*22825.22 200*22716.02 200*22606.83 200*22497.64 200*22388.45 200*22279.26 200*22170.07 200*22060.88
  200*21951.69 200*21842.5 200*21733.31 200*21624.11 200*21514.92 200*21405.73 200*21296.54 200*21187.35 200*21078.16 200*20968.97
  200*20859.78 200*20750.59 200*20641.39 200*20532.2 200*20423.01 200*20313.82 200*20204.63 200*20095.44 200*19986.25 200*19877.06
  200*19767.87 200*19658.67 200*19549.48 200*19440.29 200*19331.1 200*19221.91 200*19112.72 200*19003.53 200*18894.34 200*18785.15
  200*18675.96 200*18566.76 200*18457.57 200*18348.38 200*18239.19 100*18130 100*23589.55 200*23480.36 200*23371.17 200*23261.98
  200*23152.79 200*23043.6 200*22934.41 200*22825.22 200*22716.02 200*22606.83 200*22497.64 200*22388.45 200*22279.26 200*22170.07
  200*22060.88 200*21951.69 200*21842.5 200*21733.31 200*21624.11 200*21514.92 200*21405.73 200*21296.54 200*21187.35 200*21078.16
  200*20968.97 200*20859.78 200*20750.59 200*20641.39 200*20532.2 200*20423.01 200*20313.82 200*20204.63 200*20095.44 200*19986.25
  200*19877.06 200*19767.87 200*19658.67 200*19549.48 200*19440.29 200*19331.1 200*19221.91 200*19112.72 200*19003.53 200*18894.34
  200*18785.15 200*18675.96 200*18566.76 200*18457.57 200*18348.38 200*18239.19 100*18130 100*23599.55 200*23490.36 200*23381.17
  200*23271.98 200*23162.79 200*23053.6 200*22944.41 200*22835.22 200*22726.02 200*22616.83 200*22507.64 200*22398.45 200*22289.26
  200*22180.07 200*22070.88 200*21961.69 200*21852.5 200*21743.31 200*21634.11 200*21524.92 200*21415.73 200*21306.54 200*21197.35
  200*21088.16 200*20978.97 200*20869.78 200*20760.59 200*20651.39 200*20542.2 200*20433.01 200*20323.82 200*20214.63 200*20105.44
  200*19996.25 200*19887.06 200*19777.87 200*19668.67 200*19559.48 200*19450.29 200*19341.1 200*19231.91 200*19122.72 200*19013.53
  200*18904.34 200*18795.15 200*18685.96 200*18576.76 200*18467.57 200*18358.38 200*18249.19 100*18140 100*23599.55 200*23490.36
  200*23381.17 200*23271.98 200*23162.79 200*23053.6 200*22944.41 200*22835.22 200*22726.02 200*22616.83 200*22507.64 200*22398.45
  200*22289.26 200*22180.07 200*22070.88 200*21961.69 200*21852.5 200*21743.31 200*21634.11 200*21524.92 200*21415.73 200*21306.54
  200*21197.35 200*21088.16 200*20978.97 200*20869.78 200*20760.59 200*20651.39 200*20542.2 200*20433.01 200*20323.82 200*20214.63
  200*20105.44 200*19996.25 200*19887.06 200*19777.87 200*19668.67 200*19559.48 200*19450.29 200*19341.1 200*19231.91 200*19122.72
  200*19013.53 200*18904.34 200*18795.15 200*18685.96 200*18576.76 200*18467.57 200*18358.38 200*18249.19 100*18140 100*23609.55
  200*23500.36 200*23391.17 200*23281.98 200*23172.79 200*23063.6 200*22954.41 200*22845.22 200*22736.02 200*22626.83 200*22517.64
  200*22408.45 200*22299.26 200*22190.07 200*22080.88 200*21971.69 200*21862.5 200*21753.31 200*21644.11 200*21534.92 200*21425.73
  200*21316.54 200*21207.35 200*21098.16 200*20988.97 200*20879.78 200*20770.59 200*20661.39 200*20552.2 200*20443.01 200*20333.82
  200*20224.63 200*20115.44 200*20006.25 200*19897.06 200*19787.87 200*19678.67 200*19569.48 200*19460.29 200*19351.1 200*19241.91
  200*19132.72 200*19023.53 200*18914.34 200*18805.15 200*18695.96 200*18586.76 200*18477.57 200*18368.38 200*18259.19 100*18150
  100*23609.55 200*23500.36 200*23391.17 200*23281.98 200*23172.79 200*23063.6 200*22954.41 200*22845.22 200*22736.02 200*22626.83
  200*22517.64 200*22408.45 200*22299.26 200*22190.07 200*22080.88 200*21971.69 200*21862.5 200*21753.31 200*21644.11 200*21534.92
  200*21425.73 200*21316.54 200*21207.35 200*21098.16 200*20988.97 200*20879.78 200*20770.59 200*20661.39 200*20552.2 200*20443.01
  200*20333.82 200*20224.63 200*20115.44 200*20006.25 200*19897.06 200*19787.87 200*19678.67 200*19569.48 200*19460.29 200*19351.1
  200*19241.91 200*19132.72 200*19023.53 200*18914.34 200*18805.15 200*18695.96 200*18586.76 200*18477.57 200*18368.38 200*18259.19
  100*18150 100*23619.55 200*23510.36 200*23401.17 200*23291.98 200*23182.79 200*23073.6 200*22964.41 200*22855.22 200*22746.02
  200*22636.83 200*22527.64 200*22418.45 200*22309.26 200*22200.07 200*22090.88 200*21981.69 200*21872.5 200*21763.31 200*21654.11
  200*21544.92 200*21435.73 200*21326.54 200*21217.35 200*21108.16 200*20998.97 200*20889.78 200*20780.59 200*20671.39 200*20562.2
  200*20453.01 200*20343.82 200*20234.63 200*20125.44 200*20016.25 200*19907.06 200*19797.87 200*19688.67 200*19579.48 200*19470.29
  200*19361.1 200*19251.91 200*19142.72 200*19033.53 200*18924.34 200*18815.15 200*18705.96 200*18596.76 200*18487.57 200*18378.38
  200*18269.19 100*18160 100*23619.55 200*23510.36 200*23401.17 200*23291.98 200*23182.79 200*23073.6 200*22964.41 200*22855.22
  200*22746.02 200*22636.83 200*22527.64 200*22418.45 200*22309.26 200*22200.07 200*22090.88 200*21981.69 200*21872.5 200*21763.31
  200*21654.11 200*21544.92 200*21435.73 200*21326.54 200*21217.35 200*21108.16 200*20998.97 200*20889.78 200*20780.59 200*20671.39
  200*20562.2 200*20453.01 200*20343.82 200*20234.63 200*20125.44 200*20016.25 200*19907.06 200*19797.87 200*19688.67 200*19579.48
  200*19470.29 200*19361.1 200*19251.91 200*19142.72 200*19033.53 200*18924.34 200*18815.15 200*18705.96 200*18596.76 200*18487.57
  200*18378.38 200*18269.19 100*18160 100*23629.55 200*23520.36 200*23411.17 200*23301.98 200*23192.79 200*23083.6 200*22974.41
  200*22865.22 200*22756.02 200*22646.83 200*22537.64 200*22428.45 200*22319.26 200*22210.07 200*22100.88 200*21991.69 200*21882.5
  200*21773.31 200*21664.11 200*21554.92 200*21445.73 200*21336.54 200*21227.35 200*21118.16 200*21008.97 200*20899.78 200*20790.59
  200*20681.39 200*20572.2 200*20463.01 200*20353.82 200*20244.63 200*20135.44 200*20026.25 200*19917.06 200*19807.87 200*19698.67
  200*19589.48 200*19480.29 200*19371.1 200*19261.91 200*19152.72 200*19043.53 200*18934.34 200*18825.15 200*18715.96 200*18606.76
  200*18497.57 200*18388.38 200*18279.19 100*18170 100*23629.55 200*23520.36 200*23411.17 200*23301.98 200*23192.79 200*23083.6
  200*22974.41 200*22865.22 200*22756.02 200*22646.83 200*22537.64 200*22428.45 200*22319.26 200*22210.07 200*22100.88 200*21991.69
  200*21882.5 200*21773.31 200*21664.11 200*21554.92 200*21445.73 200*21336.54 200*21227.35 200*21118.16 200*21008.97 200*20899.78
  200*20790.59 200*20681.39 200*20572.2 200*20463.01 200*20353.82 200*20244.63 200*20135.44 200*20026.25 200*19917.06 200*19807.87
  200*19698.67 200*19589.48 200*19480.29 200*19371.1 200*19261.91 200*19152.72 200*19043.53 200*18934.34 200*18825.15 200*18715.96
  200*18606.76 200*18497.57 200*18388.38 200*18279.19 100*18170 100*23639.55 200*23530.36 200*23421.17 200*23311.98 200*23202.79
  200*23093.6 200*22984.41 200*22875.22 200*22766.02 200*22656.83 200*22547.64 200*22438.45 200*22329.26 200*22220.07 200*22110.88
  200*22001.69 200*21892.5 200*21783.31 200*21674.11 200*21564.92 200*21455.73 200*21346.54 200*21237.35 200*21128.16 200*21018.97
  200*20909.78 200*20800.59 200*20691.39 200*20582.2 200*20473.01 200*20363.82 200*20254.63 200*20145.44 200*20036.25 200*19927.06
  200*19817.87 200*19708.67 200*19599.48 200*19490.29 200*19381.1 200*19271.91 200*19162.72 200*19053.53 200*18944.34 200*18835.15
  200*18725.96 200*18616.76 200*18507.57 200*18398.38 200*18289.19 100*18180 100*23639.55 200*23530.36 200*23421.17 200*23311.98
  200*23202.79 200*23093.6 200*22984.41 200*22875.22 200*22766.02 200*22656.83 200*22547.64 200*22438.45 200*22329.26 200*22220.07
  200*22110.88 200*22001.69 200*21892.5 200*21783.31 200*21674.11 200*21564.92 200*21455.73 200*21346.54 200*21237.35 200*21128.16
  200*21018.97 200*20909.78 200*20800.59 200*20691.39 200*20582.2 200*20473.01 200*20363.82 200*20254.63 200*20145.44 200*20036.25
  200*19927.06 200*19817.87 200*19708.67 200*19599.48 200*19490.29 200*19381.1 200*19271.91 200*19162.72 200*19053.53 200*18944.34
  200*18835.15 200*18725.96 200*18616.76 200*18507.57 200*18398.38 200*18289.19 100*18180 100*23649.55 200*23540.36 200*23431.17
  200*23321.98 200*23212.79 200*23103.6 200*22994.41 200*22885.22 200*22776.02 200*22666.83 200*22557.64 200*22448.45 200*22339.26
  200*22230.07 200*22120.88 200*22011.69 200*21902.5 200*21793.31 200*21684.11 200*21574.92 200*21465.73 200*21356.54 200*21247.35
  200*21138.16 200*21028.97 200*20919.78 200*20810.59 200*20701.39 200*20592.2 200*20483.01 200*20373.82 200*20264.63 200*20155.44
  200*20046.25 200*19937.06 200*19827.87 200*19718.67 200*19609.48 200*19500.29 200*19391.1 200*19281.91 200*19172.72 200*19063.53
  200*18954.34 200*18845.15 200*18735.96 200*18626.76 200*18517.57 200*18408.38 200*18299.19 100*18190 100*23649.55 200*23540.36
  200*23431.17 200*23321.98 200*23212.79 200*23103.6 200*22994.41 200*22885.22 200*22776.02 200*22666.83 200*22557.64 200*22448.45
  200*22339.26 200*22230.07 200*22120.88 200*22011.69 200*21902.5 200*21793.31 200*21684.11 200*21574.92 200*21465.73 200*21356.54
  200*21247.35 200*21138.16 200*21028.97 200*20919.78 200*20810.59 200*20701.39 200*20592.2 200*20483.01 200*20373.82 200*20264.63
  200*20155.44 200*20046.25 200*19937.06 200*19827.87 200*19718.67 200*19609.48 200*19500.29 200*19391.1 200*19281.91 200*19172.72
  200*19063.53 200*18954.34 200*18845.15 200*18735.96 200*18626.76 200*18517.57 200*18408.38 200*18299.19 100*18190 100*23659.55
  200*23550.36 200*23441.17 200*23331.98 200*23222.79 200*23113.6 200*23004.41 200*22895.22 200*22786.02 200*22676.83 200*22567.64
  200*22458.45 200*22349.26 200*22240.07 200*22130.88 200*22021.69 200*21912.5 200*21803.31 200*21694.11 200*21584.92 200*21475.73
  200*21366.54 200*21257.35 200*21148.16 200*21038.97 200*20929.78 200*20820.59 200*20711.39 200*20602.2 200*20493.01 200*20383.82
  200*20274.63 200*20165.44 200*20056.25 200*19947.06 200*19837.87 200*19728.67 200*19619.48 200*19510.29 200*19401.1 200*19291.91
  200*19182.72 200*19073.53 200*18964.34 200*18855.15 200*18745.96 200*18636.76 200*18527.57 200*18418.38 200*18309.19 100*18200
  100*23659.55 200*23550.36 200*23441.17 200*23331.98 200*23222.79 200*23113.6 200*23004.41 200*22895.22 200*22786.02 200*22676.83
  200*22567.64 200*22458.45 200*22349.26 200*22240.07 200*22130.88 200*22021.69 200*21912.5 200*21803.31 200*21694.11 200*21584.92
  200*21475.73 200*21366.54 200*21257.35 200*21148.16 200*21038.97 200*20929.78 200*20820.59 200*20711.39 200*20602.2 200*20493.01
  200*20383.82 200*20274.63 200*20165.44 200*20056.25 200*19947.06 200*19837.87 200*19728.67 200*19619.48 200*19510.29 200*19401.1
  200*19291.91 200*19182.72 200*19073.53 200*18964.34 200*18855.15 200*18745.96 200*18636.76 200*18527.57 200*18418.38 200*18309.19
  100*18200 100*23669.55 200*23560.36 200*23451.17 200*23341.98 200*23232.79 200*23123.6 200*23014.41 200*22905.22 200*22796.02
  200*22686.83 200*22577.64 200*22468.45 200*22359.26 200*22250.07 200*22140.88 200*22031.69 200*21922.5 200*21813.31 200*21704.11
  200*21594.92 200*21485.73 200*21376.54 200*21267.35 200*21158.16 200*21048.97 200*20939.78 200*20830.59 200*20721.39 200*20612.2
  200*20503.01 200*20393.82 200*20284.63 200*20175.44 200*20066.25 200*19957.06 200*19847.87 200*19738.67 200*19629.48 200*19520.29
  200*19411.1 200*19301.91 200*19192.72 200*19083.53 200*18974.34 200*18865.15 200*18755.96 200*18646.76 200*18537.57 200*18428.38
  200*18319.19 100*18210 100*23669.55 200*23560.36 200*23451.17 200*23341.98 200*23232.79 200*23123.6 200*23014.41 200*22905.22
  200*22796.02 200*22686.83 200*22577.64 200*22468.45 200*22359.26 200*22250.07 200*22140.88 200*22031.69 200*21922.5 200*21813.31
  200*21704.11 200*21594.92 200*21485.73 200*21376.54 200*21267.35 200*21158.16 200*21048.97 200*20939.78 200*20830.59 200*20721.39
  200*20612.2 200*20503.01 200*20393.82 200*20284.63 200*20175.44 200*20066.25 200*19957.06 200*19847.87 200*19738.67 200*19629.48
  200*19520.29 200*19411.1 200*19301.91 200*19192.72 200*19083.53 200*18974.34 200*18865.15 200*18755.96 200*18646.76 200*18537.57
  200*18428.38 200*18319.19 100*18210 100*23679.55 200*23570.36 200*23461.17 200*23351.98 200*23242.79 200*23133.6 200*23024.41
  200*22915.22 200*22806.02 200*22696.83 200*22587.64 200*22478.45 200*22369.26 200*22260.07 200*22150.88 200*22041.69 200*21932.5
  200*21823.31 200*21714.11 200*21604.92 200*21495.73 200*21386.54 200*21277.35 200*21168.16 200*21058.97 200*20949.78 200*20840.59
  200*20731.39 200*20622.2 200*20513.01 200*20403.82 200*20294.63 200*20185.44 200*20076.25 200*19967.06 200*19857.87 200*19748.67
  200*19639.48 200*19530.29 200*19421.1 200*19311.91 200*19202.72 200*19093.53 200*18984.34 200*18875.15 200*18765.96 200*18656.76
  200*18547.57 200*18438.38 200*18329.19 100*18220 100*23679.55 200*23570.36 200*23461.17 200*23351.98 200*23242.79 200*23133.6
  200*23024.41 200*22915.22 200*22806.02 200*22696.83 200*22587.64 200*22478.45 200*22369.26 200*22260.07 200*22150.88 200*22041.69
  200*21932.5 200*21823.31 200*21714.11 200*21604.92 200*21495.73 200*21386.54 200*21277.35 200*21168.16 200*21058.97 200*20949.78